Title: Test Linear Advection
Variables = "Cell","I+","I-"
Zone I= 080 F=point
001  0.100000E-39  0.370000E+02
002  0.110000E-38  0.100000E+01
003  0.131000E-37  0.100000E+01
004  0.156100E-36  0.100000E+01
005  0.186010E-35  0.100000E+01
006  0.221651E-34  0.100000E+01
007  0.264121E-33  0.100000E+01
008  0.314729E-32  0.100000E+01
009  0.375033E-31  0.100000E+01
010  0.446893E-30  0.100000E+01
011  0.532521E-29  0.100000E+01
012  0.634556E-28  0.100000E+01
013  0.756142E-27  0.100000E+01
014  0.901025E-26  0.100000E+01
015  0.107367E-24  0.100000E+01
016  0.127939E-23  0.100000E+01
017  0.152453E-22  0.100000E+01
018  0.181665E-21  0.100000E+01
019  0.216473E-20  0.100000E+01
020  0.257951E-19  0.100000E+01
021  0.307377E-18  0.100000E+01
022  0.366272E-17  0.100000E+01
023  0.436453E-16  0.100000E+01
024  0.520082E-15  0.100000E+01
025  0.619738E-14  0.100000E+01
026  0.738524E-13  0.100000E+01
027  0.880311E-12  0.100000E+01
028  0.105083E-10  0.100000E+01
029  0.126327E-09  0.100000E+01
030  0.156672E-08  0.100000E+01
031  0.218053E-07  0.100000E+01
032  0.409644E-06  0.100000E+01
033  0.116169E-04  0.100000E+01
034  0.409845E-03  0.100000E+01
035  0.145301E-01  0.100000E+01
036  0.296045E+00  0.100000E+01
037  0.744102E+00  0.100000E+01
038  0.951440E+00  0.100000E+01
039  0.993844E+00  0.100000E+01
040  0.999617E+00  0.100000E+01
041  0.100000E+01  0.999617E+00
042  0.100000E+01  0.993844E+00
043  0.100000E+01  0.951440E+00
044  0.100000E+01  0.744102E+00
045  0.100000E+01  0.296045E+00
046  0.100000E+01  0.145301E-01
047  0.100000E+01  0.409845E-03
048  0.100000E+01  0.116169E-04
049  0.100000E+01  0.409644E-06
050  0.100000E+01  0.218053E-07
051  0.100000E+01  0.156672E-08
052  0.100000E+01  0.126327E-09
053  0.100000E+01  0.105083E-10
054  0.100000E+01  0.880311E-12
055  0.100000E+01  0.738524E-13
056  0.100000E+01  0.619738E-14
057  0.100000E+01  0.520082E-15
058  0.100000E+01  0.436453E-16
059  0.100000E+01  0.366272E-17
060  0.100000E+01  0.307377E-18
061  0.100000E+01  0.257951E-19
062  0.100000E+01  0.216473E-20
063  0.100000E+01  0.181665E-21
064  0.100000E+01  0.152453E-22
065  0.100000E+01  0.127939E-23
066  0.100000E+01  0.107367E-24
067  0.100000E+01  0.901025E-26
068  0.100000E+01  0.756142E-27
069  0.100000E+01  0.634556E-28
070  0.100000E+01  0.532521E-29
071  0.100000E+01  0.446893E-30
072  0.100000E+01  0.375033E-31
073  0.100000E+01  0.314729E-32
074  0.100000E+01  0.264121E-33
075  0.100000E+01  0.221651E-34
076  0.100000E+01  0.186010E-35
077  0.100000E+01  0.156100E-36
078  0.100000E+01  0.131000E-37
079  0.100000E+01  0.110000E-38
080  0.370000E+02  0.100000E-39
